//mumax 3.10 [windows_amd64 go1.11.6(gc) CUDA-11.0]
//GPU info: NVIDIA GeForce RTX 3060 Laptop GPU(6143MB), CUDA Driver 12.2, cc=8.6, using cc=80 PTX
//(c) Arne Vansteenkiste, Dynamat LAB, Ghent University, Belgium
//This is free software without any warranty. See license.txt
//********************************************************************//
//  If you use mumax in any work or publication,                      //
//  we kindly ask you to cite the references in references.bib        //
//********************************************************************//
//output directory: D:\Workspace\MatLabData\\output\cellchain.out/
setgridsize(1024, 1, 1)
setcellsize(4e-09, 4e-09, 4e-09)
OutputFormat = OVF2_TEXT
enabledemag = false
Aex = 1.3e-11
Msat = 800000
alpha = 0.05
Bz := 0.2
B_ext = vector(0, 0, 0.2)
defregion(1, rect(2*4e-09, inf))
B_ext.setregion(1, vector(0.01*sinc(2*pi*40000000000*(t-1e-08/2)), 0, 0.2))
m = uniform(0, 0, 1)
autosave(m, 1.25e-11)
run(1e-08)
//********************************************************************//
//Please cite the following references, relevant for your simulation. //
//See bibtex file in output folder for justification.                 //
//********************************************************************//
//   * Vansteenkiste et al., AIP Adv. 4, 107133 (2014).
